
                                 *****************
                                 * O   R   C   A *
                                 *****************

           --- An Ab Initio, DFT and Semiempirical electronic structure package ---

                  #######################################################
                  #                        -***-                        #
                  #          Department of theory and spectroscopy      #
                  #               Directorship: Frank Neese             #
                  #        Max Planck Institute fuer Kohlenforschung    #
                  #                Kaiser Wilhelm Platz 1               #
                  #                 D-45470 Muelheim/Ruhr               #
                  #                      Germany                        #
                  #                                                     #
                  #                  All rights reserved                #
                  #                        -***-                        #
                  #######################################################


                         Program Version 4.2.1 -  RELEASE  -


 With contributions from (in alphabetic order):
   Daniel Aravena         : Magnetic Suceptibility
   Michael Atanasov       : Ab Initio Ligand Field Theory (pilot matlab implementation)
   Alexander A. Auer      : GIAO ZORA, VPT2
   Ute Becker             : Parallelization
   Giovanni Bistoni       : ED, misc. LED, open-shell LED, HFLD
   Martin Brehm           : Molecular dynamics
   Dmytro Bykov           : SCF Hessian
   Vijay G. Chilkuri      : MRCI spin determinant printing, contributions to CSF-ICE
   Dipayan Datta          : RHF DLPNO-CCSD density
   Achintya Kumar Dutta   : EOM-CC, STEOM-CC
   Dmitry Ganyushin       : Spin-Orbit,Spin-Spin,Magnetic field MRCI
   Miquel Garcia          : C-PCM Hessian, Gaussian charge scheme
   Yang Guo               : DLPNO-NEVPT2, CIM, IAO-localization
   Andreas Hansen         : Spin unrestricted coupled pair/coupled cluster methods
   Benjamin Helmich-Paris : CASSCF linear response (MC-RPA)
   Lee Huntington         : MR-EOM, pCC
   Robert Izsak           : Overlap fitted RIJCOSX, COSX-SCS-MP3, EOM
   Christian Kollmar      : KDIIS, OOCD, Brueckner-CCSD(T), CCSD density
   Simone Kossmann        : Meta GGA functionals, TD-DFT gradient, OOMP2, MP2 Hessian
   Martin Krupicka        : AUTO-CI
   Lucas Lang             : DCDCAS
   Dagmar Lenk            : GEPOL surface, SMD
   Dimitrios Liakos       : Extrapolation schemes; Compound Job, initial MDCI parallelization
   Dimitrios Manganas     : Further ROCIS development; embedding schemes
   Dimitrios Pantazis     : SARC Basis sets
   Taras Petrenko         : DFT Hessian,TD-DFT gradient, ASA, ECA, R-Raman, ABS, FL, XAS/XES, NRVS
   Peter Pinski           : DLPNO-MP2, DLPNO-MP2 Gradient
   Christoph Reimann      : Effective Core Potentials
   Marius Retegan         : Local ZFS, SOC
   Christoph Riplinger    : Optimizer, TS searches, QM/MM, DLPNO-CCSD(T), (RO)-DLPNO pert. Triples
   Tobias Risthaus        : Range-separated hybrids, TD-DFT gradient, RPA, STAB
   Michael Roemelt        : Original ROCIS implementation
   Masaaki Saitow         : Open-shell DLPNO-CCSD energy and density
   Barbara Sandhoefer     : DKH picture change effects
   Avijit Sen             : IP-ROCIS
   Kantharuban Sivalingam : CASSCF convergence, NEVPT2, FIC-MRCI
   Bernardo de Souza      : ESD, SOC TD-DFT
   Georgi Stoychev        : AutoAux, RI-MP2 NMR
   Willem Van den Heuvel  : Paramagnetic NMR
   Boris Wezisla          : Elementary symmetry handling
   Frank Wennmohs         : Technical directorship


 We gratefully acknowledge several colleagues who have allowed us to
 interface, adapt or use parts of their codes:
   Stefan Grimme, W. Hujo, H. Kruse,             : VdW corrections, initial TS optimization,
                  C. Bannwarth                     DFT functionals, gCP, sTDA/sTD-DF
   Ed Valeev, F. Pavosevic, A. Kumar             : LibInt (2-el integral package), F12 methods
   Garnet Chan, S. Sharma, J. Yang, R. Olivares  : DMRG
   Ulf Ekstrom                                   : XCFun DFT Library
   Mihaly Kallay                                 : mrcc  (arbitrary order and MRCC methods)
   Andreas Klamt, Michael Diedenhofen            : otool_cosmo (COSMO solvation model)
   Jiri Pittner, Ondrej Demel                    : Mk-CCSD
   Frank Weinhold                                : gennbo (NPA and NBO analysis)
   Christopher J. Cramer and Donald G. Truhlar   : smd solvation model
   Lars Goerigk                                  : TD-DFT with DH, B97 family of functionals
   V. Asgeirsson, H. Jonsson                     : NEB implementation
   FAccTs GmbH                                   : IRC, NEB, NEB-TS, Multilevel, MM, QM/MM, CI optimization
   S Lehtola, MJT Oliveira, MAL Marques          : LibXC Library


 Your calculation uses the libint2 library for the computation of 2-el integrals
 For citations please refer to: http://libint.valeyev.net

 Your ORCA version has been built with support for libXC version: 4.2.3
 For citations please refer to: https://tddft.org/programs/libxc/

 This ORCA versions uses:
   CBLAS   interface :  Fast vector & matrix operations
   LAPACKE interface :  Fast linear algebra routines
   SCALAPACK package :  Parallel linear algebra routines


Your calculation utilizes the atom-pairwise dispersion correction
with the Becke-Johnson damping scheme (D3BJ)
Cite in your paper:
S.Grimme, S.Ehrlich, L.Goerigk, J Comput Chem, (2011), 32, 1456–1465 
S.Grimme, J.Antony, S.Ehrlich and H.Krieg, J.Chem.Phys., 132, (2010), 154104 
   

----- Orbital basis set information -----
Your calculation utilizes the basis: def2-SVPD
   F. Weigend and R. Ahlrichs, Phys. Chem. Chem. Phys. 7, 3297 (2005).
   D. Rappoport and F. Furche, J. Chem. Phys. 133 134105 (2010).

----- AuxJ basis set information -----
Your calculation utilizes the auxiliary basis: def2/J
   F. Weigend, Phys. Chem. Chem. Phys. 8, 1057 (2006).

================================================================================
                                        WARNINGS
                       Please study these warnings very carefully!
================================================================================


WARNING: Geometry Optimization
  ===> : Switching off AutoStart
         For restart on a previous wavefunction, please use MOREAD

INFO   : the flag for use of LIBINT has been found!

================================================================================
                                       INPUT FILE
================================================================================
NAME = mol1.com
|  1> !B3LYP D3BJ RIJCOSX def2-SVPD def2/J TightSCF TightOpt
|  2> * xyz 0 1
|  3> O          1.02820        0.08700       -0.04170
|  4> C          2.24820        0.07610       -0.05100
|  5> C          2.99890        1.04050        0.77100
|  6> C          4.33850        1.04440        0.77430
|  7> C          5.08860        2.01320        1.60010
|  8> C          6.42370        2.02030        1.60620
|  9> H          2.77160       -0.64790       -0.66820
| 10> H          2.44970        1.75460        1.37970
| 11> H          4.88340        0.32790        0.16360
| 12> H          4.55240        2.73250        2.21330
| 13> H          6.98900        1.31450        1.00460
| 14> H          6.95880        2.73880        2.21860
| 15> *
| 16> %MaxCore 64000
| 17> %scf
| 18>  Convergence VeryTight
| 19>  MaxIter 150
| 20> end
| 21> %pal nprocs 4
| 22> end
| 23> %geom
| 24>  MaxIter 250
| 25> end
| 26> 
| 27>                          ****END OF INPUT****
================================================================================

                       *****************************
                       * Geometry Optimization Run *
                       *****************************

Geometry optimization settings:
Update method            Update   .... BFGS
Choice of coordinates    CoordSys .... Z-matrix Internals
Initial Hessian          InHess   .... Almoef's Model

Convergence Tolerances:
Energy Change            TolE     ....  1.0000e-06 Eh
Max. Gradient            TolMAXG  ....  1.0000e-04 Eh/bohr
RMS Gradient             TolRMSG  ....  3.0000e-05 Eh/bohr
Max. Displacement        TolMAXD  ....  1.0000e-03 bohr
RMS Displacement         TolRMSD  ....  6.0000e-04 bohr
Strict Convergence                ....  False
------------------------------------------------------------------------------
                        ORCA OPTIMIZATION COORDINATE SETUP
------------------------------------------------------------------------------

The optimization will be done in new redundant internal coordinates
Making redundant internal coordinates   ...  (new redundants) done
Evaluating the initial hessian          ...  (Almloef) done
Evaluating the coordinates              ...  done
Calculating the B-matrix                .... done
Calculating the G-matrix                .... done
Diagonalizing the G-matrix              .... done
Small eigenvalue found = 2.945e-02
The first mode is                       ....   12
The number of degrees of freedom        ....   30

    -----------------------------------------------------------------
                    Redundant Internal Coordinates


    -----------------------------------------------------------------
         Definition                    Initial Value    Approx d2E/dq
    -----------------------------------------------------------------
      1. B(C   1,O   0)                  1.2201         1.044637   
      2. B(C   2,C   1)                  1.4729         0.460838   
      3. B(C   3,C   2)                  1.3396         0.751853   
      4. B(C   4,C   3)                  1.4776         0.452950   
      5. B(C   5,C   4)                  1.3351         0.764321   
      6. B(H   6,C   1)                  1.0858         0.365639   
      7. B(H   7,C   2)                  1.0872         0.363779   
      8. B(H   8,C   3)                  1.0878         0.363063   
      9. B(H   9,C   4)                  1.0867         0.364492   
     10. B(H  10,C   5)                  1.0861         0.365280   
     11. B(H  11,C   5)                  1.0852         0.366538   
     12. A(O   0,C   1,H   6)          119.4904         0.384562   
     13. A(C   2,C   1,H   6)          120.5393         0.336624   
     14. A(O   0,C   1,C   2)          119.9703         0.449109   
     15. A(C   1,C   2,H   7)          119.0164         0.336338   
     16. A(C   3,C   2,H   7)          120.1218         0.365317   
     17. A(C   1,C   2,C   3)          120.8617         0.426050   
     18. A(C   2,C   3,C   4)          120.7268         0.424735   
     19. A(C   4,C   3,H   8)          119.4299         0.335264   
     20. A(C   2,C   3,H   8)          119.8433         0.365193   
     21. A(C   5,C   4,H   9)          119.1639         0.366470   
     22. A(C   3,C   4,H   9)          119.9261         0.335483   
     23. A(C   3,C   4,C   5)          120.9100         0.425987   
     24. A(H  10,C   5,H  11)          119.0910         0.292307   
     25. A(C   4,C   5,H  11)          119.9462         0.366822   
     26. A(C   4,C   5,H  10)          120.9628         0.366606   
     27. D(C   3,C   2,C   1,O   0)   -179.9995         0.014466   
     28. D(H   7,C   2,C   1,O   0)      0.0015         0.014466   
     29. D(H   7,C   2,C   1,H   6)    179.9971         0.014466   
     30. D(C   3,C   2,C   1,H   6)     -0.0039         0.014466   
     31. D(C   4,C   3,C   2,H   7)      0.0007         0.040333   
     32. D(H   8,C   3,C   2,C   1)     -0.0011         0.040333   
     33. D(C   4,C   3,C   2,C   1)   -179.9983         0.040333   
     34. D(H   8,C   3,C   2,H   7)    179.9979         0.040333   
     35. D(H   9,C   4,C   3,H   8)   -179.9948         0.013982   
     36. D(H   9,C   4,C   3,C   2)      0.0024         0.013982   
     37. D(C   5,C   4,C   3,H   8)      0.0001         0.013982   
     38. D(C   5,C   4,C   3,C   2)    179.9973         0.013982   
     39. D(H  11,C   5,C   4,C   3)    179.9979         0.041817   
     40. D(H  10,C   5,C   4,H   9)    179.9958         0.041817   
     41. D(H  10,C   5,C   4,C   3)      0.0009         0.041817   
     42. D(H  11,C   5,C   4,H   9)     -0.0072         0.041817   
    -----------------------------------------------------------------

Number of atoms                         .... 12
Number of degrees of freedom            .... 42

         *************************************************************
         *                GEOMETRY OPTIMIZATION CYCLE   1            *
         *************************************************************
---------------------------------
CARTESIAN COORDINATES (ANGSTROEM)
---------------------------------
  O      1.028200    0.087000   -0.041700
  C      2.248200    0.076100   -0.051000
  C      2.998900    1.040500    0.771000
  C      4.338500    1.044400    0.774300
  C      5.088600    2.013200    1.600100
  C      6.423700    2.020300    1.606200
  H      2.771600   -0.647900   -0.668200
  H      2.449700    1.754600    1.379700
  H      4.883400    0.327900    0.163600
  H      4.552400    2.732500    2.213300
  H      6.989000    1.314500    1.004600
  H      6.958800    2.738800    2.218600

----------------------------
CARTESIAN COORDINATES (A.U.)
----------------------------
  NO LB      ZA    FRAG     MASS         X           Y           Z
   0 O     8.0000    0    15.999    1.943016    0.164406   -0.078802
   1 C     6.0000    0    12.011    4.248482    0.143808   -0.096376
   2 C     6.0000    0    12.011    5.667100    1.966260    1.456979
   3 C     6.0000    0    12.011    8.198577    1.973630    1.463215
   4 C     6.0000    0    12.011    9.616060    3.804397    3.023751
   5 C     6.0000    0    12.011   12.139034    3.817814    3.035278
   6 H     1.0000    0     1.008    5.237565   -1.224354   -1.262715
   7 H     1.0000    0     1.008    4.629262    3.315713    2.607255
   8 H     1.0000    0     1.008    9.228289    0.619641    0.309159
   9 H     1.0000    0     1.008    8.602789    5.163677    4.182531
  10 H     1.0000    0     1.008   13.207296    2.484045    1.898419
  11 H     1.0000    0     1.008   13.150226    5.175582    4.192546

--------------------------------
INTERNAL COORDINATES (ANGSTROEM)
--------------------------------
 O      0   0   0     0.000000000000     0.00000000     0.00000000
 C      1   0   0     1.220084136443     0.00000000     0.00000000
 C      2   1   0     1.472854999652   119.97032777     0.00000000
 C      3   2   1     1.339609741679   120.86171293   180.00052522
 C      4   3   2     1.477555105571   120.72679146   180.00170339
 C      5   4   3     1.335132813618   120.90998408   179.99725132
 H      2   1   3     1.085845016565   119.49035350   180.00438250
 H      3   2   1     1.087232790160   119.01643782     0.00000000
 H      4   3   2     1.087769621749   119.84325853     0.00000000
 H      5   4   3     1.086700128830   119.92607134     0.00000000
 H      6   5   4     1.086112466552   120.96276746     0.00000000
 H      6   5   4     1.085176492558   119.94620624   179.99792074

---------------------------
INTERNAL COORDINATES (A.U.)
---------------------------
 O      0   0   0     0.000000000000     0.00000000     0.00000000
 C      1   0   0     2.305624878219     0.00000000     0.00000000
 C      2   1   0     2.783292584319   119.97032777     0.00000000
 C      3   2   1     2.531495538105   120.86171293   180.00052522
 C      4   3   2     2.792174497307   120.72679146   180.00170339
 C      5   4   3     2.523035370150   120.90998408   179.99725132
 H      2   1   3     2.051949705192   119.49035350   180.00438250
 H      3   2   1     2.054572217222   119.01643782     0.00000000
 H      4   3   2     2.055586681905   119.84325853     0.00000000
 H      5   4   3     2.053565633186   119.92607134     0.00000000
 H      6   5   4     2.052455112421   120.96276746     0.00000000
 H      6   5   4     2.050686377903   119.94620624   179.99792074

---------------------
BASIS SET INFORMATION
---------------------
There are 3 groups of distinct atoms

 Group   1 Type O   : 8s5p2d contracted to 4s3p2d pattern {5111/311/11}
 Group   2 Type C   : 8s4p2d contracted to 4s2p2d pattern {5111/31/11}
 Group   3 Type H   : 4s2p contracted to 2s2p pattern {31/11}

Atom   0O    basis set group =>   1
Atom   1C    basis set group =>   2
Atom   2C    basis set group =>   2
Atom   3C    basis set group =>   2
Atom   4C    basis set group =>   2
Atom   5C    basis set group =>   2
Atom   6H    basis set group =>   3
Atom   7H    basis set group =>   3
Atom   8H    basis set group =>   3
Atom   9H    basis set group =>   3
Atom  10H    basis set group =>   3
Atom  11H    basis set group =>   3
---------------------------------
AUXILIARY/J BASIS SET INFORMATION
---------------------------------
There are 3 groups of distinct atoms

 Group   1 Type O   : 12s5p4d2f1g contracted to 6s4p3d1f1g pattern {711111/2111/211/2/1}
 Group   2 Type C   : 12s5p4d2f1g contracted to 6s4p3d1f1g pattern {711111/2111/211/2/1}
 Group   3 Type H   : 5s2p1d contracted to 3s1p1d pattern {311/2/1}

Atom   0O    basis set group =>   1
Atom   1C    basis set group =>   2
Atom   2C    basis set group =>   2
Atom   3C    basis set group =>   2
Atom   4C    basis set group =>   2
Atom   5C    basis set group =>   2
Atom   6H    basis set group =>   3
Atom   7H    basis set group =>   3
Atom   8H    basis set group =>   3
Atom   9H    basis set group =>   3
Atom  10H    basis set group =>   3
Atom  11H    basis set group =>   3


           ************************************************************
           *        Program running with 4 parallel MPI-processes     *
           *              working on a common directory               *
           ************************************************************
------------------------------------------------------------------------------
                           ORCA GTO INTEGRAL CALCULATION
                           -- RI-GTO INTEGRALS CHOSEN --
------------------------------------------------------------------------------

                         BASIS SET STATISTICS AND STARTUP INFO

Gaussian basis set:
 # of primitive gaussian shells          ...  121
 # of primitive gaussian functions       ...  243
 # of contracted shells                  ...   73
 # of contracted basis functions         ...  171
 Highest angular momentum                ...    2
 Maximum contraction depth               ...    5
Auxiliary gaussian basis set:
 # of primitive gaussian shells          ...  192
 # of primitive gaussian functions       ...  516
 # of contracted shells                  ...  120
 # of contracted aux-basis functions     ...  360
 Highest angular momentum                ...    4
 Maximum contraction depth               ...    7
Ratio of auxiliary to basis functions    ...  2.11
Integral package used                  ... LIBINT
 One Electron integrals                  ... done
 Ordering auxiliary basis shells         ... done
 Integral threshhold             Thresh  ...  1.000e-12
 Primitive cut-off               TCut    ...  1.000e-14
 Pre-screening matrix                    ... done
 Shell pair data                         ... 
 Ordering of the shell pairs             ... done (   0.001 sec) 2600 of 2701 pairs
 Determination of significant pairs      ... done (   0.000 sec)
 Creation of shell pair data             ... done (   0.001 sec)
 Storage of shell pair data              ... done (   0.014 sec)
 Shell pair data done in (   0.016 sec)
 Computing two index integrals           ... done
 Cholesky decomposition of the V-matrix  ... done


Timings:
 Total evaluation time                   ...   0.268 sec (  0.004 min)
 One electron matrix time                ...   0.021 sec (  0.000 min) =  7.7%
 Schwartz matrix evaluation time         ...   0.190 sec (  0.003 min) = 70.8%
 Two index repulsion integral time       ...   0.005 sec (  0.000 min) =  1.7%
 Cholesky decomposition of V             ...   0.002 sec (  0.000 min) =  0.8%
 Three index repulsion integral time     ...   0.000 sec (  0.000 min) =  0.0%



           ************************************************************
           *        Program running with 4 parallel MPI-processes     *
           *              working on a common directory               *
           ************************************************************
-------------------------------------------------------------------------------
                                 ORCA SCF
-------------------------------------------------------------------------------

------------
SCF SETTINGS
------------
Hamiltonian:
 Density Functional     Method          .... DFT(GTOs)
 Exchange Functional    Exchange        .... B88
   X-Alpha parameter    XAlpha          ....  0.666667
   Becke's b parameter  XBeta           ....  0.004200
 Correlation Functional Correlation     .... LYP
 LDA part of GGA corr.  LDAOpt          .... VWN-5
 Gradients option       PostSCFGGA      .... off
 Hybrid DFT is turned on
   Fraction HF Exchange ScalHFX         ....  0.200000
   Scaling of DF-GGA-X  ScalDFX         ....  0.720000
   Scaling of DF-GGA-C  ScalDFC         ....  0.810000
   Scaling of DF-LDA-C  ScalLDAC        ....  1.000000
   Perturbative correction              ....  0.000000
   Density functional embedding theory  .... OFF
   NL short-range parameter             ....  4.800000
 RI-approximation to the Coulomb term is turned on
   Number of auxiliary basis functions  .... 360
   RIJ-COSX (HFX calculated with COS-X)).... on


General Settings:
 Integral files         IntName         .... mol1
 Hartree-Fock type      HFTyp           .... RHF
 Total Charge           Charge          ....    0
 Multiplicity           Mult            ....    1
 Number of Electrons    NEL             ....   44
 Basis Dimension        Dim             ....  171
 Nuclear Repulsion      ENuc            ....    194.0927468978 Eh

Convergence Acceleration:
 DIIS                   CNVDIIS         .... on
   Start iteration      DIISMaxIt       ....    12
   Startup error        DIISStart       ....  0.200000
   # of expansion vecs  DIISMaxEq       ....     5
   Bias factor          DIISBfac        ....   1.050
   Max. coefficient     DIISMaxC        ....  10.000
 Newton-Raphson         CNVNR           .... off
 SOSCF                  CNVSOSCF        .... on
   Start iteration      SOSCFMaxIt      ....   150
   Startup grad/error   SOSCFStart      ....  0.003300
 Level Shifting         CNVShift        .... on
   Level shift para.    LevelShift      ....    0.2500
   Turn off err/grad.   ShiftErr        ....    0.0010
 Zerner damping         CNVZerner       .... off
 Static damping         CNVDamp         .... on
   Fraction old density DampFac         ....    0.7000
   Max. Damping (<1)    DampMax         ....    0.9800
   Min. Damping (>=0)   DampMin         ....    0.0000
   Turn off err/grad.   DampErr         ....    0.1000
 Fernandez-Rico         CNVRico         .... off

SCF Procedure:
 Maximum # iterations   MaxIter         ....   150
 SCF integral mode      SCFMode         .... Direct
   Integral package                     .... LIBINT
 Reset frequency        DirectResetFreq ....    20
 Integral Threshold     Thresh          ....  1.000e-12 Eh
 Primitive CutOff       TCut            ....  1.000e-14 Eh

Convergence Tolerance:
 Convergence Check Mode ConvCheckMode   .... Total+1el-Energy
 Convergence forced     ConvForced      .... 0
 Energy Change          TolE            ....  1.000e-09 Eh
 1-El. energy change                    ....  1.000e-06 Eh
 Orbital Gradient       TolG            ....  2.000e-06
 Orbital Rotation angle TolX            ....  2.000e-06
 DIIS Error             TolErr          ....  1.000e-08


Diagonalization of the overlap matrix:
Smallest eigenvalue                        ... 4.802e-05
Time for diagonalization                   ...    0.006 sec
Threshold for overlap eigenvalues          ... 1.000e-08
Number of eigenvalues below threshold      ... 0
Time for construction of square roots      ...    0.003 sec
Total time needed                          ...    0.010 sec

-------------------
DFT GRID GENERATION
-------------------

General Integration Accuracy     IntAcc      ...  4.340
Radial Grid Type                 RadialGrid  ... Gauss-Chebyshev
Angular Grid (max. acc.)         AngularGrid ... Lebedev-110
Angular grid pruning method      GridPruning ... 3 (G Style)
Weight generation scheme         WeightScheme... Becke
Basis function cutoff            BFCut       ...    1.0000e-12
Integration weight cutoff        WCut        ...    1.0000e-14
Grids for H and He will be reduced by one unit

# of grid points (after initial pruning)     ...  14760 (   0.0 sec)
# of grid points (after weights+screening)   ...  13944 (   0.0 sec)
nearest neighbour list constructed           ...    0.0 sec
Grid point re-assignment to atoms done       ...    0.0 sec
Grid point division into batches done        ...    0.0 sec
Reduced shell lists constructed in    0.1 sec

Total number of grid points                  ...    13944
Total number of batches                      ...      226
Average number of points per batch           ...       61
Average number of grid points per atom       ...     1162
Average number of shells per batch           ...    57.67 (79.00%)
Average number of basis functions per batch  ...   136.50 (79.82%)
Average number of large shells per batch     ...    48.98 (84.93%)
Average number of large basis fcns per batch ...   118.19 (86.59%)
Maximum spatial batch extension              ...  13.56, 19.09, 21.51 au
Average spatial batch extension              ...   0.80,  1.17,  1.12 au

Time for grid setup =    0.070 sec

------------------------------
INITIAL GUESS: MODEL POTENTIAL
------------------------------
Loading Hartree-Fock densities                     ... done
Calculating cut-offs                               ... done
Setting up the integral package                    ... done
Initializing the effective Hamiltonian             ... done
Starting the Coulomb interaction                   ... done (   0.0 sec)
Reading the grid                                   ... done
Mapping shells                                     ... done
Starting the XC term evaluation                    ... done (   0.1 sec)
  promolecular density results
     # of electrons  =     44.005201800
     EX              =    -35.611667840
     EC              =     -1.456999653
     EX+EC           =    -37.068667493
Transforming the Hamiltonian                       ... done (   0.0 sec)
Diagonalizing the Hamiltonian                      ... done (   0.0 sec)
Back transforming the eigenvectors                 ... done (   0.0 sec)
Now organizing SCF variables                       ... done
                      ------------------
                      INITIAL GUESS DONE (   0.3 sec)
                      ------------------
--------------------
COSX GRID GENERATION
--------------------

General Integration Accuracy     IntAcc      ...  3.340
Radial Grid Type                 RadialGrid  ... Gauss-Chebyshev
Angular Grid (max. acc.)         AngularGrid ... Lebedev-50
Angular grid pruning method      GridPruning ... 3 (G Style)
Weight generation scheme         WeightScheme... Becke
Basis function cutoff            BFCut       ...    1.0000e-12
Integration weight cutoff        WCut        ...    1.0000e-14
Grids for H and He will be reduced by one unit

# of grid points (after initial pruning)     ...   5400 (   0.0 sec)
# of grid points (after weights+screening)   ...   5100 (   0.0 sec)
nearest neighbour list constructed           ...    0.0 sec
Grid point re-assignment to atoms done       ...    0.0 sec
Grid point division into batches done        ...    0.0 sec
Reduced shell lists constructed in    0.0 sec

Total number of grid points                  ...     5100
Total number of batches                      ...       86
Average number of points per batch           ...       59
Average number of grid points per atom       ...      425
Average number of shells per batch           ...    58.87 (80.64%)
Average number of basis functions per batch  ...   139.13 (81.36%)
Average number of large shells per batch     ...    50.39 (85.60%)
Average number of large basis fcns per batch ...   121.78 (87.53%)
Maximum spatial batch extension              ...  12.22, 21.22, 20.72 au
Average spatial batch extension              ...   1.02,  1.74,  1.72 au

Overlap Fitting                  UseSFitting ... on
Constructing numerical overlap ... done (      0.0 sec)
Inverting numerical overlap    ... done (      0.0 sec)
Obtaining analytic overlap     ... done (      0.0 sec)
Final contraction and storage  ... done (      0.0 sec)


General Integration Accuracy     IntAcc      ...  3.670
Radial Grid Type                 RadialGrid  ... Gauss-Chebyshev
Angular Grid (max. acc.)         AngularGrid ... Lebedev-50
Angular grid pruning method      GridPruning ... 3 (G Style)
Weight generation scheme         WeightScheme... Becke
Basis function cutoff            BFCut       ...    1.0000e-12
Integration weight cutoff        WCut        ...    1.0000e-14
Grids for H and He will be reduced by one unit

# of grid points (after initial pruning)     ...   6876 (   0.0 sec)
# of grid points (after weights+screening)   ...   6481 (   0.0 sec)
nearest neighbour list constructed           ...    0.0 sec
Grid point re-assignment to atoms done       ...    0.0 sec
Grid point division into batches done        ...    0.0 sec
Reduced shell lists constructed in    0.0 sec

Total number of grid points                  ...     6481
Total number of batches                      ...      106
Average number of points per batch           ...       61
Average number of grid points per atom       ...      540
Average number of shells per batch           ...    58.71 (80.43%)
Average number of basis functions per batch  ...   139.00 (81.29%)
Average number of large shells per batch     ...    50.46 (85.95%)
Average number of large basis fcns per batch ...   122.04 (87.80%)
Maximum spatial batch extension              ...  12.93, 22.67, 22.67 au
Average spatial batch extension              ...   1.04,  1.48,  1.60 au

Overlap Fitting                  UseSFitting ... on
Constructing numerical overlap ... done (      0.0 sec)
Inverting numerical overlap    ... done (      0.0 sec)
Obtaining analytic overlap     ... done (      0.0 sec)
Final contraction and storage  ... done (      0.0 sec)


General Integration Accuracy     IntAcc      ...  4.010
Radial Grid Type                 RadialGrid  ... Gauss-Chebyshev
Angular Grid (max. acc.)         AngularGrid ... Lebedev-110
Angular grid pruning method      GridPruning ... 3 (G Style)
Weight generation scheme         WeightScheme... Becke
Basis function cutoff            BFCut       ...    1.0000e-12
Integration weight cutoff        WCut        ...    1.0000e-14
Grids for H and He will be reduced by one unit

# of grid points (after initial pruning)     ...  12770 (   0.0 sec)
# of grid points (after weights+screening)   ...  12087 (   0.0 sec)
nearest neighbour list constructed           ...    0.0 sec
Grid point re-assignment to atoms done       ...    0.0 sec
Grid point division into batches done        ...    0.0 sec
Reduced shell lists constructed in    0.0 sec

Total number of grid points                  ...    12087
Total number of batches                      ...      194
Average number of points per batch           ...       62
Average number of grid points per atom       ...     1007
Average number of shells per batch           ...    58.06 (79.53%)
Average number of basis functions per batch  ...   137.54 (80.43%)
Average number of large shells per batch     ...    49.68 (85.57%)
Average number of large basis fcns per batch ...   119.76 (87.07%)
Maximum spatial batch extension              ...  13.06, 17.95, 17.26 au
Average spatial batch extension              ...   0.83,  1.19,  1.12 au

Overlap Fitting                  UseSFitting ... on
Constructing numerical overlap ... done (      0.1 sec)
Inverting numerical overlap    ... done (      0.0 sec)
Obtaining analytic overlap     ... done (      0.0 sec)
Final contraction and storage  ... done (      0.0 sec)

Time for X-Grid setup             =    0.308 sec
--------------
SCF ITERATIONS
--------------
ITER       Energy         Delta-E        Max-DP      RMS-DP      [F,P]     Damp
               ***  Starting incremental Fock matrix formation  ***
  0   -268.8102160408   0.000000000000 0.10103616  0.00372290  0.2439181 0.7000
  1   -268.8890985016  -0.078882460842 0.05140893  0.00232411  0.0865187 0.7000
                               ***Turning on DIIS***
  2   -268.9179660502  -0.028867548627 0.10096141  0.00423662  0.0328495 0.0000
  3   -268.9669468371  -0.048980786912 0.04725064  0.00141675  0.0425450 0.0000
  4   -268.9760025242  -0.009055687092 0.01595954  0.00044460  0.0245238 0.0000
                      *** Initiating the SOSCF procedure ***
                           *** Shutting down DIIS ***
                      *** Re-Reading the Fockian *** 
                      *** Removing any level shift *** 
ITER      Energy       Delta-E        Grad      Rot      Max-DP    RMS-DP
  5   -268.97712649  -0.0011239702  0.000732  0.000732  0.004245  0.000165
               *** Restarting incremental Fock matrix formation ***
  6   -268.97715016  -0.0000236674  0.000353  0.001327  0.003042  0.000126
  7   -268.97715229  -0.0000021253  0.000205  0.000273  0.000887  0.000038
  8   -268.97715398  -0.0000016973  0.000085  0.000281  0.000538  0.000023
  9   -268.97715384   0.0000001467  0.000111  0.000129  0.000269  0.000007
 10   -268.97715415  -0.0000003082  0.000016  0.000084  0.000104  0.000005
 11   -268.97715415  -0.0000000062  0.000034  0.000073  0.000050  0.000001
 12   -268.97715416  -0.0000000062  0.000006  0.000020  0.000042  0.000002
 13   -268.97715416   0.0000000031  0.000004  0.000008  0.000018  0.000001
                  ***Gradient check signals convergence***
              ***Rediagonalizing the Fockian in SOSCF/NRSCF***

               *****************************************************
               *                     SUCCESS                       *
               *           SCF CONVERGED AFTER  14 CYCLES          *
               *****************************************************

Setting up the final grid:

General Integration Accuracy     IntAcc      ...  4.670
Radial Grid Type                 RadialGrid  ... Gauss-Chebyshev
Angular Grid (max. acc.)         AngularGrid ... Lebedev-302
Angular grid pruning method      GridPruning ... 3 (G Style)
Weight generation scheme         WeightScheme... Becke
Basis function cutoff            BFCut       ...    1.0000e-12
Integration weight cutoff        WCut        ...    1.0000e-14
Grids for H and He will be reduced by one unit

# of grid points (after initial pruning)     ...  57636 (   0.0 sec)
# of grid points (after weights+screening)   ...  54193 (   0.0 sec)
nearest neighbour list constructed           ...    0.0 sec
Grid point re-assignment to atoms done       ...    0.0 sec
Grid point division into batches done        ...    0.2 sec
Reduced shell lists constructed in    0.3 sec

Total number of grid points                  ...    54193
Total number of batches                      ...      852
Average number of points per batch           ...       63
Average number of grid points per atom       ...     4516
Average number of shells per batch           ...    55.88 (76.55%)
Average number of basis functions per batch  ...   132.71 (77.61%)
Average number of large shells per batch     ...    46.99 (84.09%)
Average number of large basis fcns per batch ...   113.37 (85.43%)
Maximum spatial batch extension              ...  16.16, 15.92, 18.05 au
Average spatial batch extension              ...   0.56,  0.66,  0.69 au

Final grid set up in    0.3 sec
Final integration                            ... done (   0.2 sec)
Change in XC energy                          ...     0.000397895
Integrated number of electrons               ...    43.999987894
Previous integrated no of electrons          ...    44.004294808
Old exchange energy                            =     -7.220282410 Eh
New exchange energy                            =     -7.219930832 Eh
Exchange energy change after final integration =      0.000351578 Eh
Total energy after final integration           =   -268.976404685 Eh
Final COS-X integration done in                =     1.150 sec

----------------
TOTAL SCF ENERGY
----------------

Total Energy       :         -268.97640468 Eh           -7319.22007 eV

Components:
Nuclear Repulsion  :          194.09274690 Eh            5281.53215 eV
Electronic Energy  :         -463.06915158 Eh          -12600.75222 eV
One Electron Energy:         -747.03606564 Eh          -20327.88480 eV
Two Electron Energy:          283.96691406 Eh            7727.13257 eV

Virial components:
Potential Energy   :         -535.20691685 Eh          -14563.72061 eV
Kinetic Energy     :          266.23051217 Eh            7244.50054 eV
Virial Ratio       :            2.01031397


DFT components:
N(Alpha)           :       21.999993947091 electrons
N(Beta)            :       21.999993947091 electrons
N(Total)           :       43.999987894183 electrons
E(X)               :      -28.704366681341 Eh       
E(C)               :       -1.727809900048 Eh       
E(XC)              :      -30.432176581390 Eh       
DFET-embed. en.    :        0.000000000000 Eh       

---------------
SCF CONVERGENCE
---------------

  Last Energy change         ...   -3.1588e-09  Tolerance :   1.0000e-09
  Last MAX-Density change    ...    2.6645e-15  Tolerance :   1.0000e-08
  Last RMS-Density change    ...    4.0113e-17  Tolerance :   1.0000e-09
  Last Orbital Gradient      ...    4.9181e-07  Tolerance :   2.0000e-06
  Last Orbital Rotation      ...    1.4857e-06  Tolerance :   2.0000e-06

             **** THE GBW FILE WAS UPDATED (mol1.gbw) ****
             **** DENSITY FILE WAS UPDATED (mol1.scfp) ****
             **** ENERGY FILE WAS UPDATED (mol1.en.tmp) ****
             **** THE GBW FILE WAS UPDATED (mol1.gbw) ****
             **** DENSITY FILE WAS UPDATED (mol1.scfp) ****
----------------
ORBITAL ENERGIES
----------------

  NO   OCC          E(Eh)            E(eV) 
   0   2.0000     -19.134908      -520.6873 
   1   2.0000     -10.275244      -279.6036 
   2   2.0000     -10.226601      -278.2800 
   3   2.0000     -10.216964      -278.0177 
   4   2.0000     -10.209235      -277.8074 
   5   2.0000     -10.206306      -277.7277 
   6   2.0000      -1.031108       -28.0579 
   7   2.0000      -0.830770       -22.6064 
   8   2.0000      -0.766699       -20.8629 
   9   2.0000      -0.651309       -17.7230 
  10   2.0000      -0.583566       -15.8796 
  11   2.0000      -0.572900       -15.5894 
  12   2.0000      -0.507546       -13.8110 
  13   2.0000      -0.485610       -13.2141 
  14   2.0000      -0.441442       -12.0123 
  15   2.0000      -0.421511       -11.4699 
  16   2.0000      -0.408958       -11.1283 
  17   2.0000      -0.404615       -11.0101 
  18   2.0000      -0.382117       -10.3979 
  19   2.0000      -0.347255        -9.4493 
  20   2.0000      -0.264122        -7.1871 
  21   2.0000      -0.262220        -7.1354 
  22   0.0000      -0.085605        -2.3294 
  23   0.0000       0.002277         0.0620 
  24   0.0000       0.020569         0.5597 
  25   0.0000       0.026487         0.7208 
  26   0.0000       0.032280         0.8784 
  27   0.0000       0.043672         1.1884 
  28   0.0000       0.069455         1.8900 
  29   0.0000       0.077431         2.1070 
  30   0.0000       0.099076         2.6960 
  31   0.0000       0.107649         2.9293 
  32   0.0000       0.112501         3.0613 
  33   0.0000       0.122492         3.3332 
  34   0.0000       0.138771         3.7762 
  35   0.0000       0.149403         4.0655 
  36   0.0000       0.151268         4.1162 
  37   0.0000       0.168793         4.5931 
  38   0.0000       0.178657         4.8615 
  39   0.0000       0.192083         5.2269 
  40   0.0000       0.193377         5.2620 
  41   0.0000       0.202202         5.5022 
  42   0.0000       0.210731         5.7343 
  43   0.0000       0.228338         6.2134 
  44   0.0000       0.237352         6.4587 
  45   0.0000       0.253899         6.9089 
  46   0.0000       0.261526         7.1165 
  47   0.0000       0.272506         7.4153 
  48   0.0000       0.272848         7.4246 
  49   0.0000       0.292904         7.9703 
  50   0.0000       0.301000         8.1906 
  51   0.0000       0.307124         8.3573 
  52   0.0000       0.331243         9.0136 
  53   0.0000       0.343742         9.3537 
  54   0.0000       0.348309         9.4780 
  55   0.0000       0.355808         9.6820 
  56   0.0000       0.359784         9.7902 
  57   0.0000       0.367217         9.9925 
  58   0.0000       0.374080        10.1792 
  59   0.0000       0.376380        10.2418 
  60   0.0000       0.388723        10.5777 
  61   0.0000       0.403570        10.9817 
  62   0.0000       0.406416        11.0591 
  63   0.0000       0.414367        11.2755 
  64   0.0000       0.425422        11.5763 
  65   0.0000       0.430385        11.7114 
  66   0.0000       0.435182        11.8419 
  67   0.0000       0.441260        12.0073 
  68   0.0000       0.457900        12.4601 
  69   0.0000       0.471770        12.8375 
  70   0.0000       0.484078        13.1724 
  71   0.0000       0.484950        13.1962 
  72   0.0000       0.494904        13.4670 
  73   0.0000       0.503960        13.7134 
  74   0.0000       0.512373        13.9424 
  75   0.0000       0.545682        14.8488 
  76   0.0000       0.546901        14.8819 
  77   0.0000       0.549222        14.9451 
  78   0.0000       0.563041        15.3211 
  79   0.0000       0.573291        15.6000 
  80   0.0000       0.591831        16.1045 
  81   0.0000       0.597448        16.2574 
  82   0.0000       0.599191        16.3048 
  83   0.0000       0.619592        16.8600 
  84   0.0000       0.642882        17.4937 
  85   0.0000       0.653110        17.7720 
  86   0.0000       0.665200        18.1010 
  87   0.0000       0.680236        18.5102 
  88   0.0000       0.707516        19.2525 
  89   0.0000       0.716742        19.5035 
  90   0.0000       0.727674        19.8010 
  91   0.0000       0.751686        20.4544 
  92   0.0000       0.754894        20.5417 
  93   0.0000       0.784509        21.3476 
  94   0.0000       0.854314        23.2471 
  95   0.0000       0.884978        24.0815 
  96   0.0000       0.899596        24.4792 
  97   0.0000       0.904245        24.6058 
  98   0.0000       0.932216        25.3669 
  99   0.0000       0.955241        25.9934 
 100   0.0000       0.959316        26.1043 
 101   0.0000       0.975864        26.5546 
 102   0.0000       0.978290        26.6206 
 103   0.0000       0.989282        26.9197 
 104   0.0000       1.011458        27.5232 
 105   0.0000       1.012069        27.5398 
 106   0.0000       1.049180        28.5496 
 107   0.0000       1.071511        29.1573 
 108   0.0000       1.090131        29.6640 
 109   0.0000       1.133524        30.8448 
 110   0.0000       1.163951        31.6727 
 111   0.0000       1.191966        32.4350 
 112   0.0000       1.217723        33.1359 
 113   0.0000       1.241802        33.7912 
 114   0.0000       1.251382        34.0518 
 115   0.0000       1.268577        34.5197 
 116   0.0000       1.348645        36.6985 
 117   0.0000       1.393465        37.9181 
 118   0.0000       1.400794        38.1175 
 119   0.0000       1.425615        38.7930 
 120   0.0000       1.466525        39.9062 
 121   0.0000       1.489286        40.5255 
 122   0.0000       1.527811        41.5738 
 123   0.0000       1.536060        41.7983 
 124   0.0000       1.584358        43.1126 
 125   0.0000       1.614008        43.9194 
 126   0.0000       1.650745        44.9190 
 127   0.0000       1.664802        45.3016 
 128   0.0000       1.727453        47.0064 
 129   0.0000       1.760915        47.9169 
 130   0.0000       1.775123        48.3036 
 131   0.0000       1.836647        49.9777 
 132   0.0000       1.843570        50.1661 
 133   0.0000       1.850877        50.3649 
 134   0.0000       1.863066        50.6966 
 135   0.0000       1.897564        51.6353 
 136   0.0000       1.908252        51.9262 
 137   0.0000       1.943379        52.8820 
 138   0.0000       1.960751        53.3547 
 139   0.0000       1.997035        54.3421 
 140   0.0000       2.004665        54.5497 
 141   0.0000       2.005574        54.5744 
 142   0.0000       2.049852        55.7793 
 143   0.0000       2.126045        57.8526 
 144   0.0000       2.137229        58.1570 
 145   0.0000       2.163462        58.8708 
 146   0.0000       2.253052        61.3087 
 147   0.0000       2.301396        62.6242 
 148   0.0000       2.316926        63.0468 
 149   0.0000       2.349412        63.9308 
 150   0.0000       2.392795        65.1113 
 151   0.0000       2.408883        65.5490 
 152   0.0000       2.437314        66.3227 
 153   0.0000       2.516449        68.4761 
 154   0.0000       2.519557        68.5606 
 155   0.0000       2.537915        69.0602 
 156   0.0000       2.673440        72.7480 
 157   0.0000       2.754627        74.9572 
 158   0.0000       2.807814        76.4045 
 159   0.0000       2.835953        77.1702 
 160   0.0000       2.858675        77.7885 
 161   0.0000       2.894223        78.7558 
 162   0.0000       2.902709        78.9867 
 163   0.0000       3.020981        82.2051 
 164   0.0000       3.059697        83.2586 
 165   0.0000       3.147184        85.6392 
 166   0.0000       3.157216        85.9122 
 167   0.0000       3.366113        91.5966 
 168   0.0000       3.376111        91.8686 
 169   0.0000       3.521299        95.8194 
 170   0.0000       3.755544       102.1935 

                    ********************************
                    * MULLIKEN POPULATION ANALYSIS *
                    ********************************

-----------------------
MULLIKEN ATOMIC CHARGES
-----------------------
   0 O :   -0.361638
   1 C :    0.554659
   2 C :    0.081315
   3 C :    0.227573
   4 C :    0.146194
   5 C :    0.357138
   6 H :   -0.334035
   7 H :   -0.155894
   8 H :   -0.139162
   9 H :   -0.146875
  10 H :   -0.126297
  11 H :   -0.102977
Sum of atomic charges:   -0.0000000

--------------------------------
MULLIKEN REDUCED ORBITAL CHARGES
--------------------------------
  0 O s       :     3.803404  s :     3.803404
      pz      :     1.576688  p :     4.500731
      px      :     1.265352
      py      :     1.658691
      dz2     :     0.003511  d :     0.057503
      dxz     :     0.022809
      dyz     :     0.001245
      dx2y2   :     0.007859
      dxy     :     0.022080
  1 C s       :     3.056129  s :     3.056129
      pz      :     0.713975  p :     2.227239
      px      :     0.793345
      py      :     0.719919
      dz2     :     0.017415  d :     0.161973
      dxz     :     0.037520
      dyz     :     0.021675
      dx2y2   :     0.046767
      dxy     :     0.038596
  2 C s       :     3.099726  s :     3.099726
      pz      :     0.867317  p :     2.572725
      px      :     0.877082
      py      :     0.828326
      dz2     :     0.011347  d :     0.246234
      dxz     :     0.088342
      dyz     :     0.013878
      dx2y2   :     0.018585
      dxy     :     0.114083
  3 C s       :     3.086275  s :     3.086275
      pz      :     0.821210  p :     2.438116
      px      :     0.824807
      py      :     0.792099
      dz2     :     0.011075  d :     0.248036
      dxz     :     0.095328
      dyz     :     0.007173
      dx2y2   :     0.004909
      dxy     :     0.129552
  4 C s       :     2.940156  s :     2.940156
      pz      :     0.885528  p :     2.465760
      px      :     0.725627
      py      :     0.854605
      dz2     :     0.001996  d :     0.447890
      dxz     :     0.205824
      dyz     :    -0.000346
      dx2y2   :    -0.019459
      dxy     :     0.259876
  5 C s       :     3.048390  s :     3.048390
      pz      :     0.778548  p :     2.438879
      px      :     0.917482
      py      :     0.742849
      dz2     :     0.004169  d :     0.155592
      dxz     :     0.070474
      dyz     :    -0.014230
      dx2y2   :    -0.003295
      dxy     :     0.098474
  6 H s       :     1.269646  s :     1.269646
      pz      :     0.011190  p :     0.064389
      px      :     0.038858
      py      :     0.014341
  7 H s       :     1.104410  s :     1.104410
      pz      :     0.037793  p :     0.051485
      px      :    -0.020847
      py      :     0.034538
  8 H s       :     1.093249  s :     1.093249
      pz      :     0.040181  p :     0.045913
      px      :    -0.032746
      py      :     0.038477
  9 H s       :     1.099417  s :     1.099417
      pz      :     0.036128  p :     0.047458
      px      :    -0.021252
      py      :     0.032582
 10 H s       :     1.093203  s :     1.093203
      pz      :     0.022989  p :     0.033094
      px      :    -0.004140
      py      :     0.014245
 11 H s       :     1.099172  s :     1.099172
      pz      :     0.018078  p :     0.003805
      px      :    -0.025244
      py      :     0.010970


                     *******************************
                     * LOEWDIN POPULATION ANALYSIS *
                     *******************************

----------------------
LOEWDIN ATOMIC CHARGES
----------------------
   0 O :   -0.188850
   1 C :    0.022722
   2 C :    0.034502
   3 C :    0.009781
   4 C :   -0.052219
   5 C :    0.169982
   6 H :    0.016572
   7 H :    0.023762
   8 H :    0.017082
   9 H :    0.007385
  10 H :   -0.028777
  11 H :   -0.031943

-------------------------------
LOEWDIN REDUCED ORBITAL CHARGES
-------------------------------
  0 O s       :     3.475287  s :     3.475287
      pz      :     1.457767  p :     4.464965
      px      :     1.475847
      py      :     1.531352
      dz2     :     0.024602  d :     0.248598
      dxz     :     0.070216
      dyz     :     0.002971
      dx2y2   :     0.070720
      dxy     :     0.080090
  1 C s       :     2.747770  s :     2.747770
      pz      :     0.744431  p :     2.456739
      px      :     0.920873
      py      :     0.791435
      dz2     :     0.085476  d :     0.772770
      dxz     :     0.199776
      dyz     :     0.067736
      dx2y2   :     0.190802
      dxy     :     0.228980
  2 C s       :     2.750304  s :     2.750304
      pz      :     0.836430  p :     2.659261
      px      :     0.964229
      py      :     0.858602
      dz2     :     0.059868  d :     0.555933
      dxz     :     0.135449
      dyz     :     0.075381
      dx2y2   :     0.130021
      dxy     :     0.155214
  3 C s       :     2.749814  s :     2.749814
      pz      :     0.804958  p :     2.612980
      px      :     0.972254
      py      :     0.835769
      dz2     :     0.074587  d :     0.627425
      dxz     :     0.157054
      dyz     :     0.075483
      dx2y2   :     0.145815
      dxy     :     0.174486
  4 C s       :     2.752463  s :     2.752463
      pz      :     0.839095  p :     2.674524
      px      :     0.974046
      py      :     0.861382
      dz2     :     0.071818  d :     0.625232
      dxz     :     0.156024
      dyz     :     0.069484
      dx2y2   :     0.150798
      dxy     :     0.177109
  5 C s       :     2.790195  s :     2.790195
      pz      :     0.829607  p :     2.683058
      px      :     0.994664
      py      :     0.858787
      dz2     :     0.025118  d :     0.356765
      dxz     :     0.106044
      dyz     :     0.024368
      dx2y2   :     0.074958
      dxy     :     0.126277
  6 H s       :     0.756373  s :     0.756373
      pz      :     0.072660  p :     0.227055
      px      :     0.072408
      py      :     0.081988
  7 H s       :     0.730224  s :     0.730224
      pz      :     0.082750  p :     0.246014
      px      :     0.074805
      py      :     0.088458
  8 H s       :     0.733956  s :     0.733956
      pz      :     0.083055  p :     0.248962
      px      :     0.076677
      py      :     0.089230
  9 H s       :     0.741180  s :     0.741180
      pz      :     0.085553  p :     0.251435
      px      :     0.075902
      py      :     0.089980
 10 H s       :     0.756362  s :     0.756362
      pz      :     0.094364  p :     0.272415
      px      :     0.076333
      py      :     0.101718
 11 H s       :     0.762649  s :     0.762649
      pz      :     0.094227  p :     0.269294
      px      :     0.074088
      py      :     0.100979


                      *****************************
                      * MAYER POPULATION ANALYSIS *
                      *****************************

  NA   - Mulliken gross atomic population
  ZA   - Total nuclear charge
  QA   - Mulliken gross atomic charge
  VA   - Mayer's total valence
  BVA  - Mayer's bonded valence
  FA   - Mayer's free valence

  ATOM       NA         ZA         QA         VA         BVA        FA
  0 O      8.3616     8.0000    -0.3616     2.1799     2.1799    -0.0000
  1 C      5.4453     6.0000     0.5547     4.1115     4.1115    -0.0000
  2 C      5.9187     6.0000     0.0813     4.0947     4.0947    -0.0000
  3 C      5.7724     6.0000     0.2276     4.3635     4.3635    -0.0000
  4 C      5.8538     6.0000     0.1462     4.3779     4.3779    -0.0000
  5 C      5.6429     6.0000     0.3571     3.9600     3.9600    -0.0000
  6 H      1.3340     1.0000    -0.3340     1.0501     1.0501    -0.0000
  7 H      1.1559     1.0000    -0.1559     1.1341     1.1341    -0.0000
  8 H      1.1392     1.0000    -0.1392     1.0651     1.0651     0.0000
  9 H      1.1469     1.0000    -0.1469     1.1829     1.1829     0.0000
 10 H      1.1263     1.0000    -0.1263     1.0634     1.0634    -0.0000
 11 H      1.1030     1.0000    -0.1030     1.0621     1.0621     0.0000

  Mayer bond orders larger than 0.100000
B(  0-O ,  1-C ) :   1.9446 B(  1-C ,  2-C ) :   0.9615 B(  1-C ,  6-H ) :   1.0945 
B(  2-C ,  3-C ) :   1.8320 B(  2-C ,  4-C ) :   0.2091 B(  2-C ,  5-C ) :   0.1024 
B(  2-C ,  7-H ) :   0.9295 B(  2-C ,  8-H ) :   0.1021 B(  3-C ,  4-C ) :   1.0491 
B(  3-C ,  5-C ) :   0.1250 B(  3-C ,  7-H ) :   0.1566 B(  3-C ,  8-H ) :   1.0773 
B(  4-C ,  5-C ) :   1.9194 B(  4-C ,  9-H ) :   0.9359 B(  4-C , 10-H ) :   0.1169 
B(  4-C , 11-H ) :   0.1570 B(  5-C ,  9-H ) :   0.1590 B(  5-C , 10-H ) :   0.9565 
B(  5-C , 11-H ) :   0.7361 

-------
TIMINGS
-------

Total SCF time: 0 days 0 hours 0 min 12 sec 

Total time                  ....      12.698 sec
Sum of individual times     ....      12.545 sec  ( 98.8%)

Fock matrix formation       ....      11.572 sec  ( 91.1%)
  Split-RI-J                ....       1.878 sec  ( 16.2% of F)
  Chain of spheres X        ....       8.578 sec  ( 74.1% of F)
  COS-X 1 center corr.      ....       0.000 sec  (  0.0% of F)
  XC integration            ....       1.070 sec  (  9.2% of F)
    Basis function eval.    ....       0.307 sec  ( 28.7% of XC)
    Density eval.           ....       0.192 sec  ( 18.0% of XC)
    XC-Functional eval.     ....       0.044 sec  (  4.2% of XC)
    XC-Potential eval.      ....       0.422 sec  ( 39.4% of XC)
Diagonalization             ....       0.027 sec  (  0.2%)
Density matrix formation    ....       0.005 sec  (  0.0%)
Population analysis         ....       0.005 sec  (  0.0%)
Initial guess               ....       0.205 sec  (  1.6%)
Orbital Transformation      ....       0.000 sec  (  0.0%)
Orbital Orthonormalization  ....       0.000 sec  (  0.0%)
DIIS solution               ....       0.009 sec  (  0.1%)
SOSCF solution              ....       0.024 sec  (  0.2%)
Grid generation             ....       0.698 sec  (  5.5%)


-------------------------------------------------------------------------------
                          DFT DISPERSION CORRECTION                            
                                                                               
                              DFTD3 V3.1  Rev 1                                
                          USING Becke-Johnson damping                          
-------------------------------------------------------------------------------
The B3LYP functional is recognized
Active option DFTDOPT                   ...         4   

molecular C6(AA) [au] = 1544.388757 


            DFT-D V3
 parameters
 s6 scaling factor         :     1.0000 
 a1 scaling factor         :     0.3981 
 s8 scaling factor         :     1.9889 
 a2 scaling factor         :     4.4211 
 ad hoc parameters k1-k3   :    16.0000     1.3333    -4.0000 

 Edisp/kcal,au: -9.525179798943  -0.015179338602 
 E6   /kcal   :  -4.526420956 
 E8   /kcal   :  -4.998758843 
 % E8         :  52.479417175 

-------------------------   ----------------
Dispersion correction           -0.015179339
-------------------------   ----------------


-------------------------   --------------------
FINAL SINGLE POINT ENERGY      -268.991584023304
-------------------------   --------------------



           ************************************************************
           *        Program running with 4 parallel MPI-processes     *
           *              working on a common directory               *
           ************************************************************
------------------------------------------------------------------------------
                         ORCA SCF GRADIENT CALCULATION
------------------------------------------------------------------------------

Gradient of the Kohn-Sham DFT energy:
Kohn-Sham wavefunction type      ... RKS
Hartree-Fock exchange scaling    ...    0.200
Number of operators              ...    1
Number of atoms                  ...   12
Basis set dimensions             ...  171
Integral neglect threshold       ... 1.0e-12
Integral primitive cutoff        ... 1.0e-14

Nuclear repulsion gradient       ... done
One Electron Gradient            ... done
Pre-screening matrix             ... done
RI-J gradient                    ... done
COSX-gradient                    ... done
Exchange-correlation gradient    ... done
Dispersion correction            ... done

------------------
CARTESIAN GRADIENT
------------------

   1   O   :    0.001201885    0.005694805    0.005016517
   2   C   :    0.026211470   -0.023922761   -0.019993971
   3   C   :   -0.000086281    0.014401092    0.011960835
   4   C   :   -0.007191596   -0.021960909   -0.018341448
   5   C   :    0.000380146    0.018522132    0.015334236
   6   C   :   -0.004347362   -0.004881550   -0.004324024
   7   H   :   -0.014680558    0.009290829    0.007743556
   8   H   :    0.006218599   -0.000219204   -0.000118545
   9   H   :   -0.004543749    0.002054366    0.001722942
  10   H   :    0.006612011   -0.000275923   -0.000180574
  11   H   :   -0.004293662    0.001816147    0.001608367
  12   H   :   -0.005330437   -0.000735520   -0.000579756

Difference to translation invariance:
           :    0.0001504652   -0.0002164977   -0.0001518649

Norm of the cartesian gradient     ...    0.0640671172
RMS gradient                       ...    0.0106778529
MAX gradient                       ...    0.0262114702

-------
TIMINGS
-------

Total SCF gradient time            ...        2.675 sec

One electron gradient       ....       0.028 sec  (  1.0%)
Prescreening matrices       ....       0.058 sec  (  2.2%)
RI-J Coulomb gradient       ....       0.296 sec  ( 11.1%)
COSX gradient               ....       1.013 sec  ( 37.9%)
XC gradient                 ....       0.991 sec  ( 37.0%)
------------------------------------------------------------------------------
                         ORCA GEOMETRY RELAXATION STEP
------------------------------------------------------------------------------

Reading the OPT-File                    .... done
Getting information on internals        .... done
Copying old internal coords+grads       .... done
Making the new internal coordinates     .... (new redundants).... done
Validating the new internal coordinates .... (new redundants).... done
Calculating the B-matrix                .... done
Calculating the G,G- and P matrices     .... done
Transforming gradient to internals      .... done
Projecting the internal gradient        .... done
Number of atoms                         ....  12
Number of internal coordinates          ....  42
Current Energy                          ....  -268.991584023 Eh
Current gradient norm                   ....     0.064067117 Eh/bohr
Maximum allowed component of the step   ....  0.300
Current trust radius                    ....  0.300
Evaluating the initial hessian          ....  (Almloef) done
Projecting the Hessian                  .... done
Forming the augmented Hessian           .... done
Diagonalizing the augmented Hessian     .... done
Last element of RFO vector              ....  0.993847724
Lowest eigenvalues of augmented Hessian:
 -0.005058603  0.013983013  0.014466173  0.014469325  0.027211429
Length of the computed step             ....  0.111440756
The final length of the internal step   ....  0.111440756
Converting the step to cartesian space:
 Initial RMS(Int)=    0.0171956819
Transforming coordinates:
 Iter   0:  RMS(Cart)=    0.0293664187 RMS(Int)=    2.1665827591
 Iter   1:  RMS(Cart)=    0.0005647443 RMS(Int)=    0.0004211204
 Iter   2:  RMS(Cart)=    0.0000134526 RMS(Int)=    0.0000128253
 Iter   3:  RMS(Cart)=    0.0000006475 RMS(Int)=    0.0000004874
 Iter   4:  RMS(Cart)=    0.0000000214 RMS(Int)=    0.0000000211
done
Storing new coordinates                 .... done

                                .--------------------.
          ----------------------|Geometry convergence|-------------------------
          Item                value                   Tolerance       Converged
          ---------------------------------------------------------------------
          RMS gradient        0.0072995860            0.0000300000      NO
          MAX gradient        0.0186606636            0.0001000000      NO
          RMS step            0.0171956819            0.0006000000      NO
          MAX step            0.0479712154            0.0010000000      NO
          ........................................................
          Max(Bonds)      0.0254      Max(Angles)    2.37
          Max(Dihed)        0.59      Max(Improp)    0.00
          ---------------------------------------------------------------------

The optimization has not yet converged - more geometry cycles are needed


    ---------------------------------------------------------------------------
                         Redundant Internal Coordinates
                            (Angstroem and degrees)

        Definition                    Value    dE/dq     Step     New-Value
    ----------------------------------------------------------------------------
     1. B(C   1,O   0)                1.2201 -0.001048  0.0005    1.2206   
     2. B(C   2,C   1)                1.4729  0.003259 -0.0037    1.4692   
     3. B(C   3,C   2)                1.3396 -0.018661  0.0130    1.3527   
     4. B(C   4,C   3)                1.4776  0.012464 -0.0144    1.4632   
     5. B(C   5,C   4)                1.3351 -0.013934  0.0096    1.3447   
     6. B(H   6,C   1)                1.0858 -0.017783  0.0254    1.1112   
     7. B(H   7,C   2)                1.0872 -0.003286  0.0047    1.0919   
     8. B(H   8,C   3)                1.0878 -0.004622  0.0066    1.0944   
     9. B(H   9,C   4)                1.0867 -0.003566  0.0051    1.0918   
    10. B(H  10,C   5)                1.0861 -0.004247  0.0061    1.0922   
    11. B(H  11,C   5)                1.0852 -0.003478  0.0050    1.0901   
    12. A(O   0,C   1,H   6)          119.49  0.001099    0.06    119.55   
    13. A(C   2,C   1,H   6)          120.54  0.015633   -2.37    118.17   
    14. A(O   0,C   1,C   2)          119.97 -0.016732    2.30    122.27   
    15. A(C   1,C   2,H   7)          119.02  0.008118   -1.28    117.74   
    16. A(C   3,C   2,H   7)          120.12 -0.002764    0.50    120.63   
    17. A(C   1,C   2,C   3)          120.86 -0.005354    0.78    121.64   
    18. A(C   2,C   3,C   4)          120.73 -0.012489    1.78    122.51   
    19. A(C   4,C   3,H   8)          119.43  0.008953   -1.36    118.07   
    20. A(C   2,C   3,H   8)          119.84  0.003536   -0.42    119.43   
    21. A(C   5,C   4,H   9)          119.16 -0.000667    0.23    119.39   
    22. A(C   3,C   4,H   9)          119.93  0.010924   -1.70    118.23   
    23. A(C   3,C   4,C   5)          120.91 -0.010257    1.47    122.38   
    24. A(H  10,C   5,H  11)          119.09  0.004471   -0.80    118.30   
    25. A(C   4,C   5,H  11)          119.95 -0.003917    0.66    120.60   
    26. A(C   4,C   5,H  10)          120.96 -0.000555    0.14    121.10   
    27. D(C   3,C   2,C   1,O   0)   -180.00 -0.000104    0.24   -179.76   
    28. D(H   7,C   2,C   1,O   0)      0.00 -0.000000    0.06      0.06   
    29. D(H   7,C   2,C   1,H   6)    180.00 -0.000117    0.40    180.40   
    30. D(C   3,C   2,C   1,H   6)     -0.00 -0.000221    0.59      0.58   
    31. D(C   4,C   3,C   2,H   7)      0.00 -0.000078    0.12      0.12   
    32. D(H   8,C   3,C   2,C   1)     -0.00  0.000013   -0.04     -0.04   
    33. D(C   4,C   3,C   2,C   1)   -180.00  0.000027   -0.06   -180.06   
    34. D(H   8,C   3,C   2,H   7)    180.00 -0.000092    0.15    180.14   
    35. D(H   9,C   4,C   3,H   8)   -179.99  0.000006    0.08   -179.92   
    36. D(H   9,C   4,C   3,C   2)      0.00 -0.000008    0.10      0.11   
    37. D(C   5,C   4,C   3,H   8)      0.00 -0.000134    0.32      0.32   
    38. D(C   5,C   4,C   3,C   2)    180.00 -0.000148    0.35    180.34   
    39. D(H  11,C   5,C   4,C   3)    180.00  0.000160   -0.23    179.77   
    40. D(H  10,C   5,C   4,H   9)    180.00 -0.000148    0.22    180.21   
    41. D(H  10,C   5,C   4,C   3)      0.00 -0.000010   -0.02     -0.02   
    42. D(H  11,C   5,C   4,H   9)     -0.01  0.000022    0.01      0.00   
    ----------------------------------------------------------------------------

         *************************************************************
         *                GEOMETRY OPTIMIZATION CYCLE   2            *
         *************************************************************
---------------------------------
CARTESIAN COORDINATES (ANGSTROEM)
---------------------------------
  O      1.005693    0.065314   -0.070879
  C      2.225891    0.085196   -0.046084
  C      2.978327    1.043608    0.774706
  C      4.330840    1.057413    0.788741
  C      5.099138    2.004051    1.597700
  C      6.443742    2.019991    1.604596
  H      2.798480   -0.645486   -0.656885
  H      2.408506    1.753981    1.377220
  H      4.882324    0.338071    0.175427
  H      4.551587    2.721911    2.211627
  H      7.019400    1.316985    0.998577
  H      6.987072    2.740866    2.215754

----------------------------
CARTESIAN COORDINATES (A.U.)
----------------------------
  NO LB      ZA    FRAG     MASS         X           Y           Z
   0 O     8.0000    0    15.999    1.900484    0.123425   -0.133942
   1 C     6.0000    0    12.011    4.206325    0.160998   -0.087087
   2 C     6.0000    0    12.011    5.628223    1.972134    1.463983
   3 C     6.0000    0    12.011    8.184101    1.998222    1.490504
   4 C     6.0000    0    12.011    9.635974    3.787108    3.019216
   5 C     6.0000    0    12.011   12.176908    3.817230    3.032248
   6 H     1.0000    0     1.008    5.288360   -1.219792   -1.241333
   7 H     1.0000    0     1.008    4.551417    3.314543    2.602568
   8 H     1.0000    0     1.008    9.226256    0.638862    0.331508
   9 H     1.0000    0     1.008    8.601252    5.143666    4.179370
  10 H     1.0000    0     1.008   13.264744    2.488740    1.887038
  11 H     1.0000    0     1.008   13.203653    5.179486    4.187168

--------------------------------
INTERNAL COORDINATES (ANGSTROEM)
--------------------------------
 O      0   0   0     0.000000000000     0.00000000     0.00000000
 C      1   0   0     1.220612222958     0.00000000     0.00000000
 C      2   1   0     1.469152834657   122.27326875     0.00000000
 C      3   2   1     1.352655910523   121.63841464   180.24393541
 C      4   3   2     1.463154353407   122.50552840   179.93686080
 C      5   4   3     1.344716538840   122.38173324   180.34338867
 H      2   1   3     1.111230289011   119.55266432   179.65836574
 H      3   2   1     1.091946831868   117.73615342     0.06391676
 H      4   3   2     1.094414197091   119.42816741   359.95909181
 H      5   4   3     1.091806158028   118.22529799     0.10681946
 H      6   5   4     1.092180855593   121.10128473   359.97530317
 H      6   5   4     1.090128931265   120.60261386   179.76443842

---------------------------
INTERNAL COORDINATES (A.U.)
---------------------------
 O      0   0   0     0.000000000000     0.00000000     0.00000000
 C      1   0   0     2.306622817107     0.00000000     0.00000000
 C      2   1   0     2.776296506375   122.27326875     0.00000000
 C      3   2   1     2.556149224318   121.63841464   180.24393541
 C      4   3   2     2.764961019593   122.50552840   179.93686080
 C      5   4   3     2.541145986163   122.38173324   180.34338867
 H      2   1   3     2.099920917949   119.55266432   179.65836574
 H      3   2   1     2.063480465033   117.73615342     0.06391676
 H      4   3   2     2.068143109577   119.42816741   359.95909181
 H      5   4   3     2.063214630002   118.22529799     0.10681946
 H      6   5   4     2.063922705783   121.10128473   359.97530317
 H      6   5   4     2.060045130756   120.60261386   179.76443842



           ************************************************************
           *        Program running with 4 parallel MPI-processes     *
           *              working on a common directory               *
           ************************************************************
 One Electron integrals                  ... done
 Pre-screening matrix                    ... done


           ************************************************************
           *        Program running with 4 parallel MPI-processes     *
           *              working on a common directory               *
           ************************************************************

Diagonalization of the overlap matrix:
Smallest eigenvalue                        ... 5.037e-05
Time for diagonalization                   ...    0.006 sec
Threshold for overlap eigenvalues          ... 1.000e-08
Number of eigenvalues below threshold      ... 0
Time for construction of square roots      ...    0.003 sec
Total time needed                          ...    0.009 sec

-------------------
DFT GRID GENERATION
-------------------

General Integration Accuracy     IntAcc      ...  4.340
Radial Grid Type                 RadialGrid  ... Gauss-Chebyshev
Angular Grid (max. acc.)         AngularGrid ... Lebedev-110
Angular grid pruning method      GridPruning ... 3 (G Style)
Weight generation scheme         WeightScheme... Becke
Basis function cutoff            BFCut       ...    1.0000e-12
Integration weight cutoff        WCut        ...    1.0000e-14
Grids for H and He will be reduced by one unit

# of grid points (after initial pruning)     ...  14760 (   0.0 sec)
# of grid points (after weights+screening)   ...  13931 (   0.0 sec)
nearest neighbour list constructed           ...    0.0 sec
Grid point re-assignment to atoms done       ...    0.0 sec
Grid point division into batches done        ...    0.0 sec
Reduced shell lists constructed in    0.0 sec

Total number of grid points                  ...    13931
Total number of batches                      ...      225
Average number of points per batch           ...       61
Average number of grid points per atom       ...     1161
Average number of shells per batch           ...    57.60 (78.91%)
Average number of basis functions per batch  ...   136.57 (79.86%)
Average number of large shells per batch     ...    48.86 (84.82%)
Average number of large basis fcns per batch ...   117.90 (86.33%)
Maximum spatial batch extension              ...  13.37, 18.03, 18.00 au
Average spatial batch extension              ...   0.80,  1.16,  1.13 au

Time for grid setup =    0.052 sec

--------------------
COSX GRID GENERATION
--------------------

General Integration Accuracy     IntAcc      ...  3.340
Radial Grid Type                 RadialGrid  ... Gauss-Chebyshev
Angular Grid (max. acc.)         AngularGrid ... Lebedev-50
Angular grid pruning method      GridPruning ... 3 (G Style)
Weight generation scheme         WeightScheme... Becke
Basis function cutoff            BFCut       ...    1.0000e-12
Integration weight cutoff        WCut        ...    1.0000e-14
Grids for H and He will be reduced by one unit

# of grid points (after initial pruning)     ...   5400 (   0.0 sec)
# of grid points (after weights+screening)   ...   5094 (   0.0 sec)
nearest neighbour list constructed           ...    0.0 sec
Grid point re-assignment to atoms done       ...    0.0 sec
Grid point division into batches done        ...    0.0 sec
Reduced shell lists constructed in    0.0 sec

Total number of grid points                  ...     5094
Total number of batches                      ...       86
Average number of points per batch           ...       59
Average number of grid points per atom       ...      424
Average number of shells per batch           ...    58.70 (80.41%)
Average number of basis functions per batch  ...   138.70 (81.11%)
Average number of large shells per batch     ...    50.26 (85.63%)
Average number of large basis fcns per batch ...   121.74 (87.77%)
Maximum spatial batch extension              ...  12.22, 21.17, 20.72 au
Average spatial batch extension              ...   1.03,  1.52,  1.59 au

Overlap Fitting                  UseSFitting ... on
Constructing numerical overlap ... done (      0.0 sec)
Inverting numerical overlap    ... done (      0.0 sec)
Obtaining analytic overlap     ... done (      0.0 sec)
Final contraction and storage  ... done (      0.0 sec)


General Integration Accuracy     IntAcc      ...  3.670
Radial Grid Type                 RadialGrid  ... Gauss-Chebyshev
Angular Grid (max. acc.)         AngularGrid ... Lebedev-50
Angular grid pruning method      GridPruning ... 3 (G Style)
Weight generation scheme         WeightScheme... Becke
Basis function cutoff            BFCut       ...    1.0000e-12
Integration weight cutoff        WCut        ...    1.0000e-14
Grids for H and He will be reduced by one unit

# of grid points (after initial pruning)     ...   6876 (   0.0 sec)
# of grid points (after weights+screening)   ...   6472 (   0.0 sec)
nearest neighbour list constructed           ...    0.0 sec
Grid point re-assignment to atoms done       ...    0.0 sec
Grid point division into batches done        ...    0.0 sec
Reduced shell lists constructed in    0.0 sec

Total number of grid points                  ...     6472
Total number of batches                      ...      106
Average number of points per batch           ...       61
Average number of grid points per atom       ...      539
Average number of shells per batch           ...    58.57 (80.23%)
Average number of basis functions per batch  ...   138.79 (81.16%)
Average number of large shells per batch     ...    50.39 (86.04%)
Average number of large basis fcns per batch ...   122.11 (87.98%)
Maximum spatial batch extension              ...  12.93, 22.67, 22.67 au
Average spatial batch extension              ...   1.02,  1.40,  1.51 au

Overlap Fitting                  UseSFitting ... on
Constructing numerical overlap ... done (      0.0 sec)
Inverting numerical overlap    ... done (      0.0 sec)
Obtaining analytic overlap     ... done (      0.0 sec)
Final contraction and storage  ... done (      0.0 sec)


General Integration Accuracy     IntAcc      ...  4.010
Radial Grid Type                 RadialGrid  ... Gauss-Chebyshev
Angular Grid (max. acc.)         AngularGrid ... Lebedev-110
Angular grid pruning method      GridPruning ... 3 (G Style)
Weight generation scheme         WeightScheme... Becke
Basis function cutoff            BFCut       ...    1.0000e-12
Integration weight cutoff        WCut        ...    1.0000e-14
Grids for H and He will be reduced by one unit

# of grid points (after initial pruning)     ...  12770 (   0.0 sec)
# of grid points (after weights+screening)   ...  12077 (   0.0 sec)
nearest neighbour list constructed           ...    0.0 sec
Grid point re-assignment to atoms done       ...    0.0 sec
Grid point division into batches done        ...    0.0 sec
Reduced shell lists constructed in    0.0 sec

Total number of grid points                  ...    12077
Total number of batches                      ...      194
Average number of points per batch           ...       62
Average number of grid points per atom       ...     1006
Average number of shells per batch           ...    58.10 (79.59%)
Average number of basis functions per batch  ...   137.78 (80.57%)
Average number of large shells per batch     ...    49.48 (85.16%)
Average number of large basis fcns per batch ...   119.32 (86.60%)
Maximum spatial batch extension              ...  12.95, 17.95, 17.95 au
Average spatial batch extension              ...   0.85,  1.19,  1.13 au

Overlap Fitting                  UseSFitting ... on
Constructing numerical overlap ... done (      0.0 sec)
Inverting numerical overlap    ... done (      0.0 sec)
Obtaining analytic overlap     ... done (      0.0 sec)
Final contraction and storage  ... done (      0.0 sec)

Time for X-Grid setup             =    0.194 sec
--------------
SCF ITERATIONS
--------------
ITER       Energy         Delta-E        Max-DP      RMS-DP      [F,P]     Damp
               ***  Starting incremental Fock matrix formation  ***
  0   -268.9786086938   0.000000000000 0.02173874  0.00064565  0.0488553 0.7000
                      *** Initiating the SOSCF procedure ***
                      *** Re-Reading the Fockian *** 
                      *** Removing any level shift *** 
ITER      Energy       Delta-E        Grad      Rot      Max-DP    RMS-DP
  1   -268.97919726  -0.0005885643  0.000631  0.000631  0.059040  0.001831
               *** Restarting incremental Fock matrix formation ***
  2   -268.98066318  -0.0014659178  0.000751  0.003320  0.005813  0.000240
  3   -268.98066029   0.0000028855  0.001696  0.003813  0.002426  0.000092
  4   -268.98069183  -0.0000315418  0.000400  0.000781  0.001726  0.000065
  5   -268.98069142   0.0000004165  0.000451  0.000459  0.000807  0.000024
  6   -268.98069503  -0.0000036174  0.000099  0.000451  0.000461  0.000018
  7   -268.98069491   0.0000001191  0.000119  0.000225  0.000323  0.000009
  8   -268.98069526  -0.0000003464  0.000008  0.000021  0.000097  0.000004
  9   -268.98069525   0.0000000153  0.000007  0.000009  0.000035  0.000001
 10   -268.98069526  -0.0000000134  0.000003  0.000010  0.000011  0.000001
 11   -268.98069526  -0.0000000010  0.000003  0.000005  0.000007  0.000000
                  ***Gradient check signals convergence***
              ***Rediagonalizing the Fockian in SOSCF/NRSCF***

               *****************************************************
[...]
  34   0.0000       0.138750         3.7756 
  35   0.0000       0.145083         3.9479 
  36   0.0000       0.150621         4.0986 
  37   0.0000       0.167811         4.5664 
  38   0.0000       0.177083         4.8187 
  39   0.0000       0.189538         5.1576 
  40   0.0000       0.191997         5.2245 
  41   0.0000       0.204904         5.5757 
  42   0.0000       0.208019         5.6605 
  43   0.0000       0.224893         6.1196 
  44   0.0000       0.239889         6.5277 
  45   0.0000       0.251587         6.8460 
  46   0.0000       0.262695         7.1483 
  47   0.0000       0.267320         7.2741 
  48   0.0000       0.269151         7.3240 
  49   0.0000       0.285387         7.7658 
  50   0.0000       0.300662         8.1814 
  51   0.0000       0.305516         8.3135 
  52   0.0000       0.334549         9.1035 
  53   0.0000       0.343992         9.3605 
  54   0.0000       0.348483         9.4827 
  55   0.0000       0.353819         9.6279 
  56   0.0000       0.360064         9.7978 
  57   0.0000       0.362755         9.8711 
  58   0.0000       0.366582         9.9752 
  59   0.0000       0.373543        10.1646 
  60   0.0000       0.386522        10.5178 
  61   0.0000       0.407678        11.0935 
  62   0.0000       0.410694        11.1756 
  63   0.0000       0.412499        11.2247 
  64   0.0000       0.422205        11.4888 
  65   0.0000       0.430375        11.7111 
  66   0.0000       0.433058        11.7841 
  67   0.0000       0.434878        11.8336 
  68   0.0000       0.456706        12.4276 
  69   0.0000       0.476458        12.9651 
  70   0.0000       0.482669        13.1341 
  71   0.0000       0.484553        13.1853 
  72   0.0000       0.490184        13.3386 
  73   0.0000       0.504027        13.7153 
  74   0.0000       0.511811        13.9271 
  75   0.0000       0.538183        14.6447 
  76   0.0000       0.542417        14.7599 
  77   0.0000       0.549896        14.9634 
  78   0.0000       0.559923        15.2363 
  79   0.0000       0.566857        15.4250 
  80   0.0000       0.589828        16.0500 
  81   0.0000       0.597349        16.2547 
  82   0.0000       0.597806        16.2671 
  83   0.0000       0.608988        16.5714 
  84   0.0000       0.630544        17.1580 
  85   0.0000       0.660144        17.9634 
  86   0.0000       0.664639        18.0857 
  87   0.0000       0.676122        18.3982 
  88   0.0000       0.707148        19.2425 
  89   0.0000       0.716586        19.4993 
  90   0.0000       0.726467        19.7682 
  91   0.0000       0.750921        20.4336 
  92   0.0000       0.773053        21.0358 
  93   0.0000       0.776255        21.1230 
  94   0.0000       0.844968        22.9928 
  95   0.0000       0.885045        24.0833 
  96   0.0000       0.897864        24.4321 
  97   0.0000       0.907983        24.7075 
  98   0.0000       0.927056        25.2265 
  99   0.0000       0.941435        25.6178 
 100   0.0000       0.961479        26.1632 
 101   0.0000       0.963996        26.2317 
 102   0.0000       0.972359        26.4592 
 103   0.0000       0.992140        26.9975 
 104   0.0000       1.009925        27.4815 
 105   0.0000       1.016426        27.6584 
 106   0.0000       1.053709        28.6729 
 107   0.0000       1.064382        28.9633 
 108   0.0000       1.087050        29.5801 
 109   0.0000       1.135990        30.9119 
 110   0.0000       1.156967        31.4827 
 111   0.0000       1.185701        32.2646 
 112   0.0000       1.219704        33.1898 
 113   0.0000       1.245374        33.8883 
 114   0.0000       1.255045        34.1515 
 115   0.0000       1.269345        34.5406 
 116   0.0000       1.359257        36.9873 
 117   0.0000       1.391980        37.8777 
 118   0.0000       1.398087        38.0439 
 119   0.0000       1.416382        38.5417 
 120   0.0000       1.489531        40.5322 
 121   0.0000       1.489762        40.5385 
 122   0.0000       1.526529        41.5390 
 123   0.0000       1.541064        41.9345 
 124   0.0000       1.578607        42.9561 
 125   0.0000       1.608319        43.7646 
 126   0.0000       1.644882        44.7595 
 127   0.0000       1.670191        45.4482 
 128   0.0000       1.717454        46.7343 
 129   0.0000       1.769664        48.1550 
 130   0.0000       1.779669        48.4273 
 131   0.0000       1.831953        49.8500 
 132   0.0000       1.836746        49.9804 
 133   0.0000       1.850344        50.3504 
 134   0.0000       1.857153        50.5357 
 135   0.0000       1.886749        51.3410 
 136   0.0000       1.911078        52.0031 
 137   0.0000       1.929689        52.5095 
 138   0.0000       1.959740        53.3272 
 139   0.0000       1.973793        53.7097 
 140   0.0000       1.991365        54.1878 
 141   0.0000       2.014346        54.8132 
 142   0.0000       2.036762        55.4231 
 143   0.0000       2.105475        57.2929 
 144   0.0000       2.119921        57.6860 
 145   0.0000       2.140070        58.2343 
 146   0.0000       2.234228        60.7964 
 147   0.0000       2.282907        62.1211 
 148   0.0000       2.310172        62.8630 
 149   0.0000       2.342892        63.7533 
 150   0.0000       2.365381        64.3653 
 151   0.0000       2.417379        65.7802 
 152   0.0000       2.451105        66.6980 
 153   0.0000       2.515061        68.4383 
 154   0.0000       2.528150        68.7945 
 155   0.0000       2.535130        68.9844 
 156   0.0000       2.678165        72.8766 
 157   0.0000       2.730954        74.3130 
 158   0.0000       2.772889        75.4541 
 159   0.0000       2.818386        76.6922 
 160   0.0000       2.856618        77.7325 
 161   0.0000       2.889933        78.6391 
 162   0.0000       2.890472        78.6537 
 163   0.0000       2.999750        81.6273 
 164   0.0000       3.039043        82.6966 
 165   0.0000       3.154627        85.8418 
 166   0.0000       3.168545        86.2205 
 167   0.0000       3.312235        90.1305 
 168   0.0000       3.394005        92.3556 
 169   0.0000       3.512432        95.5781 
 170   0.0000       3.767079       102.5074 

                    ********************************
                    * MULLIKEN POPULATION ANALYSIS *
                    ********************************

-----------------------
MULLIKEN ATOMIC CHARGES
-----------------------
   0 O :   -0.358832
   1 C :    0.453874
   2 C :   -0.037363
   3 C :    0.118808
   4 C :    0.088892
   5 C :    0.306285
   6 H :   -0.180859
   7 H :   -0.114708
   8 H :   -0.052255
   9 H :   -0.039268
  10 H :   -0.096558
  11 H :   -0.088016
Sum of atomic charges:   -0.0000000

--------------------------------
MULLIKEN REDUCED ORBITAL CHARGES
--------------------------------
  0 O s       :     3.811416  s :     3.811416
      pz      :     1.572607  p :     4.494784
      px      :     1.267218
      py      :     1.654959
      dz2     :     0.003739  d :     0.052632
      dxz     :     0.020787
      dyz     :     0.000533
      dx2y2   :     0.007962
      dxy     :     0.019611
  1 C s       :     3.085793  s :     3.085793
      pz      :     0.738245  p :     2.270314
      px      :     0.776174
      py      :     0.755894
      dz2     :     0.020299  d :     0.190019
      dxz     :     0.041323
      dyz     :     0.028883
      dx2y2   :     0.055040
      dxy     :     0.044474
  2 C s       :     3.169369  s :     3.169369
      pz      :     0.875820  p :     2.576741
      px      :     0.860322
      py      :     0.840599
      dz2     :     0.012590  d :     0.291253
      dxz     :     0.093760
      dyz     :     0.030063
      dx2y2   :     0.036523
      dxy     :     0.118317
  3 C s       :     3.113228  s :     3.113228
      pz      :     0.835002  p :     2.439508
      px      :     0.793039
      py      :     0.811468
      dz2     :     0.012209  d :     0.328456
      dxz     :     0.102058
      dyz     :     0.046810
      dx2y2   :     0.026958
      dxy     :     0.140422
  4 C s       :     2.971672  s :     2.971672
      pz      :     0.909924  p :     2.470495
      px      :     0.672713
      py      :     0.887857
      dz2     :    -0.001223  d :     0.468942
      dxz     :     0.204769
      dyz     :     0.026557
      dx2y2   :    -0.015864
      dxy     :     0.254703
  5 C s       :     3.132480  s :     3.132480
      pz      :     0.782986  p :     2.430728
      px      :     0.894770
      py      :     0.752973
      dz2     :     0.002394  d :     0.130507
      dxz     :     0.063082
      dyz     :    -0.014807
      dx2y2   :    -0.006739
      dxy     :     0.086576
  6 H s       :     1.109089  s :     1.109089
      pz      :     0.009478  p :     0.071770
      px      :     0.049669
      py      :     0.012623
  7 H s       :     1.058144  s :     1.058144
      pz      :     0.038689  p :     0.056564
      px      :    -0.019072
      py      :     0.036947
  8 H s       :     1.002178  s :     1.002178
      pz      :     0.041232  p :     0.050077
      px      :    -0.031297
      py      :     0.040142
  9 H s       :     0.985744  s :     0.985744
      pz      :     0.034401  p :     0.053524
      px      :    -0.011552
      py      :     0.030675
 10 H s       :     1.055245  s :     1.055245
      pz      :     0.025945  p :     0.041313
      px      :    -0.002709
      py      :     0.018077
 11 H s       :     1.075642  s :     1.075642
      pz      :     0.019330  p :     0.012374
      px      :    -0.020887
      py      :     0.013930


                     *******************************
                     * LOEWDIN POPULATION ANALYSIS *
                     *******************************

----------------------
LOEWDIN ATOMIC CHARGES
----------------------
   0 O :   -0.181947
   1 C :    0.001136
   2 C :    0.035855
   3 C :    0.000894
   4 C :   -0.062303
   5 C :    0.179027
   6 H :    0.026376
   7 H :    0.025462
   8 H :    0.019749
   9 H :    0.011128
  10 H :   -0.025682
  11 H :   -0.029695

-------------------------------
LOEWDIN REDUCED ORBITAL CHARGES
-------------------------------
  0 O s       :     3.476076  s :     3.476076
      pz      :     1.456139  p :     4.463393
      px      :     1.477320
      py      :     1.529934
      dz2     :     0.024730  d :     0.242478
      dxz     :     0.067283
      dyz     :     0.002739
      dx2y2   :     0.070845
      dxy     :     0.076882
  1 C s       :     2.749879  s :     2.749879
      pz      :     0.742984  p :     2.458782
      px      :     0.924604
      py      :     0.791194
      dz2     :     0.088284  d :     0.790202
      dxz     :     0.205116
      dyz     :     0.068112
      dx2y2   :     0.190591
      dxy     :     0.238100
  2 C s       :     2.754382  s :     2.754382
      pz      :     0.839623  p :     2.660799
      px      :     0.958596
      py      :     0.862581
      dz2     :     0.058518  d :     0.548964
      dxz     :     0.132094
      dyz     :     0.078207
      dx2y2   :     0.127991
      dxy     :     0.152155
  3 C s       :     2.750701  s :     2.750701
      pz      :     0.806851  p :     2.612874
      px      :     0.967087
      py      :     0.838936
      dz2     :     0.073942  d :     0.635531
      dxz     :     0.158856
      dyz     :     0.078842
      dx2y2   :     0.148765
      dxy     :     0.175126
  4 C s       :     2.753088  s :     2.753088
      pz      :     0.843690  p :     2.679945
      px      :     0.970308
      py      :     0.865947
      dz2     :     0.070477  d :     0.629269
      dxz     :     0.158471
      dyz     :     0.070193
      dx2y2   :     0.151522
      dxy     :     0.178605
  5 C s       :     2.794313  s :     2.794313
      pz      :     0.828413  p :     2.676178
      px      :     0.989665
      py      :     0.858100
      dz2     :     0.024536  d :     0.350481
      dxz     :     0.105156
      dyz     :     0.022981
      dx2y2   :     0.073717
      dxy     :     0.124091
  6 H s       :     0.750297  s :     0.750297
      pz      :     0.067684  p :     0.223328
      px      :     0.078247
      py      :     0.077397
  7 H s       :     0.732065  s :     0.732065
      pz      :     0.081460  p :     0.242473
      px      :     0.073805
      py      :     0.087208
  8 H s       :     0.729583  s :     0.729583
      pz      :     0.083391  p :     0.250668
      px      :     0.076922
      py      :     0.090354
  9 H s       :     0.739157  s :     0.739157
      pz      :     0.084935  p :     0.249715
      px      :     0.075262
      py      :     0.089517
 10 H s       :     0.755942  s :     0.755942
      pz      :     0.093865  p :     0.269740
      px      :     0.075069
      py      :     0.100806
 11 H s       :     0.762149  s :     0.762149
      pz      :     0.093366  p :     0.267546
      px      :     0.073546
      py      :     0.100634


                      *****************************
                      * MAYER POPULATION ANALYSIS *
                      *****************************

  NA   - Mulliken gross atomic population
  ZA   - Total nuclear charge
  QA   - Mulliken gross atomic charge
  VA   - Mayer's total valence
  BVA  - Mayer's bonded valence
  FA   - Mayer's free valence

  ATOM       NA         ZA         QA         VA         BVA        FA
  0 O      8.3588     8.0000    -0.3588     2.2227     2.2227    -0.0000
  1 C      5.5461     6.0000     0.4539     4.2093     4.2093     0.0000
  2 C      6.0374     6.0000    -0.0374     4.2317     4.2317     0.0000
  3 C      5.8812     6.0000     0.1188     4.5051     4.5051    -0.0000
  4 C      5.9111     6.0000     0.0889     4.3315     4.3315    -0.0000
  5 C      5.6937     6.0000     0.3063     3.9388     3.9388     0.0000
  6 H      1.1809     1.0000    -0.1809     1.1243     1.1243    -0.0000
  7 H      1.1147     1.0000    -0.1147     1.1702     1.1702     0.0000
  8 H      1.0523     1.0000    -0.0523     1.0942     1.0942    -0.0000
  9 H      1.0393     1.0000    -0.0393     1.2034     1.2034     0.0000
 10 H      1.0966     1.0000    -0.0966     1.1003     1.1003     0.0000
 11 H      1.0880     1.0000    -0.0880     1.0853     1.0853    -0.0000

  Mayer bond orders larger than 0.100000
B(  0-O ,  1-C ) :   1.9646 B(  0-O ,  6-H ) :   0.1109 B(  1-C ,  2-C ) :   1.0081 
B(  1-C ,  6-H ) :   1.0762 B(  1-C ,  7-H ) :   0.1197 B(  2-C ,  3-C ) :   1.8418 
B(  2-C ,  4-C ) :   0.1748 B(  2-C ,  7-H ) :   0.9645 B(  2-C ,  8-H ) :   0.1124 
B(  3-C ,  4-C ) :   1.1672 B(  3-C ,  7-H ) :   0.1415 B(  3-C ,  8-H ) :   1.0323 
B(  3-C ,  9-H ) :   0.1320 B(  4-C ,  5-C ) :   1.8419 B(  4-C ,  8-H ) :   0.1037 
B(  4-C ,  9-H ) :   0.8959 B(  4-C , 11-H ) :   0.1284 B(  5-C ,  9-H ) :   0.1649 
B(  5-C , 10-H ) :   0.9818 B(  5-C , 11-H ) :   0.7792 

-------
TIMINGS
-------

Total SCF time: 0 days 0 hours 0 min 6 sec 

Total time                  ....       6.249 sec
Sum of individual times     ....       6.040 sec  ( 96.7%)

Fock matrix formation       ....       5.351 sec  ( 85.6%)
  Split-RI-J                ....       0.826 sec  ( 15.4% of F)
  Chain of spheres X        ....       3.965 sec  ( 74.1% of F)
  COS-X 1 center corr.      ....       0.000 sec  (  0.0% of F)
  XC integration            ....       0.468 sec  (  8.7% of F)
    Basis function eval.    ....       0.143 sec  ( 30.7% of XC)
    Density eval.           ....       0.090 sec  ( 19.3% of XC)
    XC-Functional eval.     ....       0.021 sec  (  4.4% of XC)
    XC-Potential eval.      ....       0.191 sec  ( 40.8% of XC)
Diagonalization             ....       0.006 sec  (  0.1%)
Density matrix formation    ....       0.003 sec  (  0.1%)
Population analysis         ....       0.005 sec  (  0.1%)
Initial guess               ....       0.009 sec  (  0.1%)
Orbital Transformation      ....       0.000 sec  (  0.0%)
Orbital Orthonormalization  ....       0.006 sec  (  0.1%)
DIIS solution               ....       0.001 sec  (  0.0%)
SOSCF solution              ....       0.011 sec  (  0.2%)
Grid generation             ....       0.653 sec  ( 10.5%)


-------------------------------------------------------------------------------
                          DFT DISPERSION CORRECTION                            
                                                                               
                              DFTD3 V3.1  Rev 1                                
                          USING Becke-Johnson damping                          
-------------------------------------------------------------------------------
The B3LYP functional is recognized
Active option DFTDOPT                   ...         4   

molecular C6(AA) [au] = 1545.426541 


            DFT-D V3
 parameters
 s6 scaling factor         :     1.0000 
 a1 scaling factor         :     0.3981 
 s8 scaling factor         :     1.9889 
 a2 scaling factor         :     4.4211 
 ad hoc parameters k1-k3   :    16.0000     1.3333    -4.0000 

 Edisp/kcal,au: -9.478735324090  -0.015105324628 
 E6   /kcal   :  -4.505236276 
 E8   /kcal   :  -4.973499048 
 % E8         :  52.470069877 

-------------------------   ----------------
Dispersion correction           -0.015105325
-------------------------   ----------------


-------------------------   --------------------
FINAL SINGLE POINT ENERGY      -268.995881860244
-------------------------   --------------------

                                *** OPTIMIZATION RUN DONE ***

                            ***************************************
                            *     ORCA property calculations      *
                            ***************************************

                                    ---------------------
                                    Active property flags
                                    ---------------------
   (+) Dipole Moment


------------------------------------------------------------------------------
                       ORCA ELECTRIC PROPERTIES CALCULATION
------------------------------------------------------------------------------

Dipole Moment Calculation                       ... on
Quadrupole Moment Calculation                   ... off
Polarizability Calculation                      ... off
GBWName                                         ... mol1.gbw
Electron density file                           ... mol1.scfp
The origin for moment calculation is the CENTER OF MASS  = ( 6.855470,  1.925825  1.420058)

-------------
DIPOLE MOMENT
-------------
                                X             Y             Z
Electronic contribution:     -4.82093      -1.56119      -1.33692
Nuclear contribution   :      6.44118       1.97826       1.69865
                        -----------------------------------------
Total Dipole Moment    :      1.62025       0.41708       0.36173
                        -----------------------------------------
Magnitude (a.u.)       :      1.71172
Magnitude (Debye)      :      4.35086



--------------------
Rotational spectrum 
--------------------
 
Rotational constants in cm-1:     0.961772     0.044455     0.042491 
Rotational constants in MHz : 28833.201369  1332.724159  1273.852714 

 Dipole components along the rotational axes: 
x,y,z [a.u.] :     1.685256    -0.299840     0.002709 
x,y,z [Debye]:     4.283579    -0.762133     0.006885 

 

Timings for individual modules:

Sum of individual times         ...      137.906 sec (=   2.298 min)
GTO integral calculation        ...        3.692 sec (=   0.062 min)   2.7 %
SCF iterations                  ...      106.891 sec (=   1.782 min)  77.5 %
SCF Gradient evaluation         ...       26.712 sec (=   0.445 min)  19.4 %
Geometry relaxation             ...        0.612 sec (=   0.010 min)   0.4 %
                             ****ORCA TERMINATED NORMALLY****
TOTAL RUN TIME: 0 days 0 hours 2 minutes 19 seconds 286 msec
